ITEM: TIMESTEP
71000000
ITEM: NUMBER OF ATOMS
289
ITEM: BOX BOUNDS pp pp pp
90 150
90 150
90 150
ITEM: ATOMS id mol type x y z ix iy iz 
641672 107138 7 100.454 101.514 141.59 3 -8 -4 
604289 69755 7 99.0457 101.504 141.545 11 14 -2 
616425 81891 7 99.9913 101.488 141.334 -1 6 -3 
487451 2102 1 99.2024 100.793 141.066 0 0 0 
599746 65212 7 100.488 100.771 141.946 2 2 -3 
642094 107560 7 99.8916 100.707 141.355 5 -3 4 
487449 2102 2 99.1064 100.574 142.224 0 0 0 
487448 2102 1 99.4279 100.867 141.929 0 0 0 
634431 99897 7 99.4773 101.34 141.028 4 4 10 
582546 48012 7 99.2574 101.487 141.966 -1 -4 -1 
643460 108926 7 100.406 101.733 141.992 1 18 10 
587882 53348 7 101.956 101.148 141.09 -7 5 13 
627566 93032 7 101.501 101.086 141.438 11 -9 2 
607609 73075 7 101.513 101.65 141.084 5 3 3 
579076 44542 7 100.792 100.99 141.272 6 -4 1 
147093 635 2 101.899 101.026 142.107 1 0 0 
147291 635 4 101.146 100.813 141.916 1 0 0 
147292 635 5 101.269 101.792 141.714 1 0 0 
545827 11293 6 101.289 101.751 141.808 -1 -3 -3 
596233 61699 7 100.868 101.239 142.37 4 -4 -2 
634992 100458 7 102.657 101.203 141.325 4 1 -10 
70541 305 1 103.371 100.708 142.257 -1 0 0 
147091 635 2 102.635 100.715 141.483 1 0 0 
70536 305 2 103.266 101.718 141.37 -1 0 0 
595491 60957 7 102.025 101.755 142.257 7 3 1 
70538 305 1 103.047 101.131 142.083 -1 0 0 
537036 2502 6 102.083 101.735 141.385 1 -6 2 
97204 419 5 102.183 101.543 141.492 0 0 0 
70542 305 2 103.355 101.629 142.332 -1 0 0 
147089 635 1 102.342 100.702 142.269 1 0 0 
70540 305 2 102.419 101.672 142.442 -1 0 0 
574530 39996 7 104.082 101.798 141.815 0 8 6 
70543 305 2 103.557 100.892 141.343 -1 0 0 
70735 305 4 104.685 101.487 141.873 -1 0 0 
398135 1717 2 104.933 101.198 142.344 0 0 0 
644918 110384 7 104.828 101.038 141.012 7 -3 -5 
324103 1397 4 104.409 101.579 141.001 1 0 -1 
324071 1397 2 104.143 100.916 141.094 1 0 -1 
613570 79036 7 103.654 101.983 141.289 3 -13 -2 
147290 635 5 104.102 100.586 141.964 1 0 0 
70539 305 2 103.884 101.32 141.708 -1 0 0 
573227 38693 6 104.141 100.601 141.954 4 -7 -4 
397165 1712 4 97.9958 103.408 141.996 1 1 -1 
593362 58828 7 97.6424 103.128 142.039 -5 0 1 
396972 1712 2 97.6008 102.772 141.43 1 1 -1 
487646 2102 5 97.853 102.362 141.811 0 0 0 
396965 1712 1 98.3201 102.912 141.382 1 1 -1 
396962 1712 1 98.5794 103.038 141.924 1 1 -1 
558759 24225 6 97.7366 102.411 141.806 1 2 2 
397166 1712 5 98.4253 102.469 142.35 1 1 -1 
557052 22518 6 98.3922 102.482 142.319 -3 -1 0 
453770 1956 5 99.491 102.162 141.195 0 0 0 
540039 5505 6 99.5888 102.047 141.195 6 4 -5 
566349 31815 6 99.4802 103.192 141.351 9 2 -5 
557283 22749 6 100.168 102.899 142.199 -3 0 3 
86534 373 5 100.271 102.966 142.171 1 1 0 
642583 108049 7 99.414 102.219 141.849 4 0 -5 
453774 1956 5 99.5348 103.149 141.431 0 0 0 
396967 1712 2 99.0614 102.379 141.699 1 1 -1 
647653 113119 7 100.037 102.518 141.515 9 -3 -6 
396964 1712 2 99.3237 102.741 142.141 1 1 -1 
560824 26290 6 99.8873 102.172 142.402 3 0 -2 
397158 1712 5 99.6842 102.163 142.458 1 1 -1 
629767 95233 7 100.512 102.325 141.639 -5 13 9 
558215 23681 6 101.427 102.446 141.206 2 5 3 
70732 305 5 101.507 102.453 141.243 -1 0 0 
86500 373 2 101.512 103.043 141.658 1 1 0 
601931 67397 7 100.709 102.04 141.072 -4 3 11 
587229 52695 7 101.332 102.494 142.047 5 -8 11 
564668 30134 6 100.725 103.473 142.128 -1 -5 -3 
623844 89310 7 100.656 102.797 141.464 -1 3 -11 
70729 305 4 101.452 103.296 142.126 -1 0 0 
86533 373 4 101.069 102.622 142.378 1 1 0 
70731 305 4 102.054 102.34 141.874 -1 0 0 
86502 373 1 102.178 103.169 141.115 1 1 0 
537654 3120 6 103.466 102.639 142.226 -1 0 -2 
386978 1669 2 103.488 103.244 141.169 1 1 -1 
70734 305 5 103.092 102.693 141.102 -1 0 0 
70535 305 1 102.799 102.053 141.857 -1 0 0 
70529 305 1 102.026 103.473 141.567 -1 0 0 
70532 305 1 102.414 102.902 141.656 -1 0 0 
70533 305 2 102.607 102.725 142.377 -1 0 0 
70537 305 2 103.173 102.411 141.604 -1 0 0 
386982 1669 2 102.888 103.13 142.17 1 1 -1 
97203 419 4 102.247 102.249 141.03 0 0 0 
546745 12211 6 103.062 102.751 141.06 7 0 -6 
78885 341 2 104.98 102.285 141.056 0 1 0 
78889 341 2 104.66 103.401 141.708 0 1 0 
387179 1669 4 104.197 102.54 142.355 1 1 -1 
554800 20266 6 104.686 102.425 141.91 0 -2 -1 
612286 77752 7 104.441 103.118 141.08 3 2 -4 
70736 305 5 104.343 102.094 141.958 -1 0 0 
386979 1669 2 103.776 103.263 141.716 1 1 -1 
620923 86389 7 104.115 102.439 141.573 3 -3 8 
386981 1669 2 103.883 103.315 141.936 1 1 -1 
387180 1669 5 103.506 102.639 142.315 1 1 -1 
387177 1669 4 104.21 102.835 141.28 1 1 -1 
615066 80532 7 104.687 103.39 142.485 15 7 -1 
314795 1357 4 97.6164 103.977 142.101 0 -1 0 
314599 1357 1 97.5043 104.854 141.197 0 -1 0 
396970 1712 2 98.1563 103.739 141.41 1 1 -1 
314597 1357 2 97.5534 104.523 142.2 0 -1 0 
642229 107695 7 98.925 103.622 141.476 0 -19 -16 
540316 5782 6 98.5369 104.518 141.989 4 -1 -2 
394121 1699 2 98.4485 104.834 141.492 0 0 0 
397159 1712 4 98.7659 103.85 141.719 1 1 -1 
236384 1019 5 98.4482 104.629 142.069 1 0 0 
396963 1712 2 98.3278 103.674 142.19 1 1 -1 
549121 14587 6 99.6373 104.659 142.263 -1 -2 -2 
23891 103 4 100.125 104.874 142.088 0 0 0 
539493 4959 6 100.485 103.566 141.564 0 8 -1 
622455 87921 7 99.9102 104.908 141.179 -4 1 3 
591700 57166 7 99.4025 104.055 141.048 4 1 -7 
601621 67087 7 99.4509 104.497 141.459 -8 13 2 
397160 1712 5 99.3314 104.458 142.202 1 1 -1 
23892 103 5 100.123 104.244 141.798 0 0 0 
548165 13631 6 99.0156 103.933 142.385 5 9 -1 
396961 1712 2 99.507 103.613 142.027 1 1 -1 
562246 27712 6 100.128 104.164 141.775 -1 1 -4 
86535 373 4 101.408 103.787 141.521 1 1 0 
522902 2254 5 101.234 104.488 141.858 1 1 0 
550431 15897 6 101.457 104.47 141.697 -1 0 3 
70730 305 5 100.713 103.571 141.747 -1 0 0 
644301 109767 7 100.521 104.113 141.15 -9 4 -3 
70530 305 2 101.822 103.856 142.153 -1 0 0 
23857 103 2 100.736 104.607 142.373 0 0 0 
23859 103 1 100.603 104.97 141.367 0 0 0 
522897 2254 4 102.704 104.355 142.323 1 1 0 
613381 78847 7 102.212 104.494 141.909 -8 -3 -8 
616319 81785 7 102.465 104.552 141.827 -6 0 2 
583641 49107 7 103.39 104.381 141.61 -1 -5 -6 
578622 44088 7 102.631 104.216 141.097 -10 -11 -4 
70531 305 2 102.386 103.783 141.667 -1 0 0 
70534 305 2 102.824 103.669 141.356 -1 0 0 
386980 1669 1 103.27 103.857 142.28 1 1 -1 
522698 2254 2 102.509 104.051 142.499 1 1 0 
79088 341 5 104.255 103.774 142.465 0 1 0 
589220 54686 7 104.55 104.319 141.065 0 4 6 
78892 341 2 104.844 103.84 141.354 0 1 0 
612106 77572 7 104.318 104.182 141.314 -10 -10 -5 
50804 219 5 104.841 104.945 142.495 1 0 -1 
618416 83882 7 104.078 104.932 142.062 5 -2 4 
78891 341 2 104.747 104.56 142.21 0 1 0 
386977 1669 1 103.814 103.913 141.643 1 1 -1 
78890 341 1 104.704 104.107 141.991 0 1 0 
250337 1080 2 104.824 104.982 141.399 0 0 0 
595838 61304 7 103.732 104.466 142.36 5 -1 6 
627982 93448 7 97.5247 98.9071 143.148 -3 10 3 
553688 19154 6 97.7758 97.6851 143.431 1 -1 -2 
506417 2183 2 97.8229 98.1019 142.986 1 1 -1 
602150 67616 7 98.6891 98.7989 143.82 4 14 6 
506452 2183 5 98.2796 98.8286 142.579 1 1 -1 
625311 90777 7 98.1394 98.3326 143.519 5 4 -2 
506448 2183 5 97.5994 97.7498 143.349 1 1 -1 
506451 2183 4 98.6857 98.2662 143.178 1 1 -1 
580024 45490 7 98.5242 97.894 143.741 8 -2 -5 
506416 2183 1 98.3041 97.7756 142.511 1 1 -1 
247984 1069 5 100.144 98.4242 143.649 0 0 0 
506419 2183 1 99.0327 97.6285 143.131 1 1 -1 
645169 110635 7 99.2654 98.208 143.825 3 -8 4 
58890 254 2 99.5738 98.7724 142.801 0 1 0 
58889 254 2 99.1153 98.936 142.784 0 1 0 
58896 254 2 100.394 97.8452 143.51 0 1 0 
58923 254 4 99.511 98.7243 143.184 0 1 0 
506453 2183 4 99.9313 97.6888 142.986 1 1 -1 
545624 11090 6 100.193 98.3721 143.566 -2 0 2 
575991 41457 7 99.1915 98.5481 143.902 1 -13 -4 
506423 2183 2 99.7414 98.0181 143.02 1 1 -1 
623150 88616 7 100.113 97.6472 143.775 5 10 7 
506420 2183 2 99.0143 98.094 142.538 1 1 -1 
147293 635 4 101.818 98.7111 142.633 1 0 0 
58927 254 4 101.248 97.776 143.257 0 1 0 
58928 254 5 101.92 97.8811 142.756 0 1 0 
247793 1069 2 101.868 98.3401 143.691 0 0 0 
247981 1069 4 101.159 98.8023 143.148 0 0 0 
58895 254 2 101.268 98.151 142.74 0 1 0 
58894 254 1 100.669 98.2936 142.896 0 1 0 
578330 43796 7 101.416 98.0111 143.423 1 5 -13 
247788 1069 2 101.409 98.5946 143.801 0 0 0 
588391 53857 7 101.452 98.8128 143.134 0 -3 -7 
546588 12054 6 101.906 97.8913 142.848 4 -3 -3 
506455 2183 4 100.562 97.5913 142.686 1 1 -1 
398315 1717 4 102.851 97.9715 143.036 0 0 0 
70739 305 4 103.211 98.9404 142.527 -1 0 0 
582676 48142 7 102.517 97.7478 143.277 9 -5 -13 
247986 1069 5 102.348 98.5154 143.386 0 0 0 
557566 23032 6 102.638 98.8254 143.199 5 -6 2 
247794 1069 2 103.105 98.1049 143.733 0 0 0 
574581 40047 7 102.998 98.8242 143.006 -6 -8 1 
119442 515 2 102.925 97.597 142.826 0 0 0 
70740 305 5 103.601 98.6466 143.207 -1 0 0 
609418 74884 7 104.117 98.0399 142.725 -2 -4 3 
544667 10133 6 103.721 98.6627 143.6 -5 0 1 
619502 84968 7 103.574 97.7513 142.974 1 3 -11 
549360 14826 6 104.474 98.5441 143.181 0 -3 5 
398158 1717 3 104.627 98.921 143.935 0 0 0 
119466 515 5 104.465 98.5527 143.251 0 0 0 
398162 1717 3 104.097 97.8781 143.654 0 0 0 
119433 515 2 104.997 98.0242 142.856 0 0 0 
398156 1717 3 104.741 97.7149 143.517 0 0 0 
631806 97272 7 98.1858 100.246 143.317 2 5 4 
610779 76245 7 98.0229 99.0427 143.822 6 10 -9 
628559 94025 7 98.8292 100.278 143.106 -2 -11 1 
591361 56827 7 97.744 100.429 143.274 0 -7 -3 
58924 254 5 98.7905 99.6734 142.884 0 1 0 
71232 308 2 98.5781 99.6769 143.808 0 1 -1 
621082 86548 7 98.2977 99.7108 143.395 -2 -13 0 
612900 78366 7 98.0587 100.371 142.781 -4 -10 -3 
621769 87235 7 97.5581 99.506 142.566 2 1 4 
629310 94776 7 98.3309 99.0905 143.181 -3 -2 10 
560468 25934 6 97.5482 99.6014 143.061 4 3 -4 
395329 1705 1 100.373 99.4247 143.458 1 0 -1 
395332 1705 1 100.432 100.082 143.569 1 0 -1 
594514 59980 7 99.2121 99.3741 143.323 7 -11 2 
58893 254 2 100.341 99.0013 143.103 0 1 0 
645085 110551 7 99.4272 100.214 143.938 0 8 -5 
598883 64349 7 99.9052 100.183 143.29 3 -13 -9 
633996 99462 7 99.4319 99.3578 143.942 -2 -4 1 
578635 44101 7 99.6815 99.3803 143.497 3 5 -8 
487447 2102 2 99.137 100.375 142.792 0 0 0 
598811 64277 7 99.9265 99.3044 143.938 9 13 0 
395530 1705 5 99.5763 99.5466 142.56 1 0 -1 
395529 1705 4 100.173 99.7216 142.58 1 0 -1 
572773 38239 6 99.564 99.7659 142.573 0 -2 2 
247982 1069 5 101.656 99.4246 143.632 0 0 0 
247784 1069 2 100.832 99.0796 143.866 0 0 0 
395330 1705 2 100.712 99.4578 142.77 1 0 -1 
644900 110366 7 101.453 99.3814 142.622 -7 -1 -3 
568418 33884 6 101.483 99.3197 143.619 -5 7 6 
395334 1705 2 100.84 99.956 143.338 1 0 -1 
147296 635 5 100.777 100.296 142.641 1 0 0 
522909 2254 4 101.543 100.463 143.514 1 1 0 
147295 635 4 101.335 99.7724 142.791 1 0 0 
545522 10988 6 100.66 100.466 142.703 1 -1 0 
626362 91828 7 101.919 100.04 143.984 5 -7 -13 
70545 305 2 103.35 99.6683 143.04 -1 0 0 
147294 635 5 102.424 99.1065 142.854 1 0 0 
611506 76972 7 102.068 99.9097 143.075 3 6 0 
616767 82233 7 103.123 99.5843 142.574 -7 2 -8 
522718 2254 1 102.451 99.9182 143.725 1 1 0 
522721 2254 3 102.768 99.3821 143.596 1 1 0 
522722 2254 3 102.907 99.965 143.484 1 1 0 
620533 85999 7 102.515 99.839 142.621 3 1 0 
583568 49034 7 103.105 99.2329 143.776 -2 -1 -10 
398324 1717 5 103.839 100.226 143.279 0 0 0 
544092 9558 6 103.783 100.182 143.158 2 3 1 
70741 305 4 104.446 99.1678 142.532 -1 0 0 
70547 305 1 104.3 99.8158 142.973 -1 0 0 
70550 305 1 104.401 99.4705 143.499 -1 0 0 
70548 305 2 103.957 99.1721 142.923 -1 0 0 
70551 305 2 103.879 99.9995 143.959 -1 0 0 
70552 305 2 103.947 99.3239 143.942 -1 0 0 
398323 1717 4 104.372 100.272 142.561 0 0 0 
70553 305 3 104.661 99.3863 143.951 -1 0 0 
225334 972 3 104.738 100.24 143.76 0 1 0 
612088 77554 7 97.5811 101.155 142.875 -20 -1 4 
611240 76706 7 97.9053 101.722 143.284 7 -12 -9 
581771 47237 7 97.8275 100.979 143.568 -5 -4 6 
487638 2102 5 98.5931 101.101 143.499 0 0 0 
557357 22823 6 98.4761 101.196 143.53 1 -1 2 
644062 109528 7 98.6846 100.525 143.881 -6 2 4 
634630 100096 7 98.5434 100.935 142.84 -4 -22 -2 
553989 19455 6 98.6146 101.63 142.595 4 2 -4 
538951 4417 6 97.9564 101.888 142.512 4 3 -4 
487641 2102 4 99.8711 100.623 142.694 0 0 0 
487442 2102 1 99.0451 101.745 143.231 0 0 0 
487446 2102 2 99.6141 100.821 143.462 0 0 0 
71431 308 4 99.0571 101.192 143.814 0 1 -1 
553633 19099 6 100.073 101.723 143.225 2 2 -3 
487445 2102 1 99.2983 101.133 142.615 0 0 0 
395336 1705 2 99.5282 101.231 143.555 1 0 -1 
395534 1705 5 100.034 101.865 143.48 1 0 -1 
487443 2102 2 99.5143 101.947 142.784 0 0 0 
635246 100712 7 99.8961 101.33 142.525 3 -3 -2 
522908 2254 5 101.503 100.694 142.747 1 1 0 
643560 109026 7 101.41 101.924 142.797 -2 -6 -2 
558942 24408 6 100.886 101.638 143.93 -1 7 2 
522910 2254 5 101.666 101.317 143.404 1 1 0 
539183 4649 6 101.663 101.319 143.392 -5 -5 6 
395346 1705 2 100.788 101.999 143.406 1 0 -1 
635937 101403 7 100.528 101.272 142.698 -3 -3 -2 
581117 46583 7 101.355 100.886 143.642 -4 7 -2 
541852 7318 6 100.594 101.116 143.26 5 -1 -4 
487642 2102 5 100.621 101.134 143.266 0 0 0 
596733 62199 7 100.781 101.708 142.718 -6 -1 6 
561474 26940 6 101.387 100.937 142.648 1 3 -5 
522712 2254 1 102.407 101.444 143.454 1 1 0 
522714 2254 2 103.324 101.303 143.059 1 1 0 
147090 635 2 103.111 100.798 142.854 1 0 0 
ITEM: TIMESTEP
73000000
ITEM: NUMBER OF ATOMS
289
ITEM: BOX BOUNDS pp pp pp
90 150
90 150
90 150
ITEM: ATOMS id mol type x y z ix iy iz 
641672 107138 7 100.454 101.514 141.59 3 -8 -4 
604289 69755 7 99.0457 101.504 141.545 11 14 -2 
616425 81891 7 99.9913 101.488 141.334 -1 6 -3 
487451 2102 1 99.2024 100.793 141.066 0 0 0 
599746 65212 7 100.488 100.771 141.946 2 2 -3 
642094 107560 7 99.8916 100.707 141.355 5 -3 4 
487449 2102 2 99.1064 100.574 142.224 0 0 0 
487448 2102 1 99.4279 100.867 141.929 0 0 0 
634431 99897 7 99.4773 101.34 141.028 4 4 10 
582546 48012 7 99.2574 101.487 141.966 -1 -4 -1 
643460 108926 7 100.406 101.733 141.992 1 18 10 
587882 53348 7 101.956 101.148 141.09 -7 5 13 
627566 93032 7 101.501 101.086 141.438 11 -9 2 
607609 73075 7 101.513 101.65 141.084 5 3 3 
579076 44542 7 100.792 100.99 141.272 6 -4 1 
147093 635 2 101.899 101.026 142.107 1 0 0 
147291 635 4 101.146 100.813 141.916 1 0 0 
147292 635 5 101.269 101.792 141.714 1 0 0 
545827 11293 6 101.289 101.751 141.808 -1 -3 -3 
596233 61699 7 100.868 101.239 142.37 4 -4 -2 
634992 100458 7 102.657 101.203 141.325 4 1 -10 
70541 305 1 103.371 100.708 142.257 -1 0 0 
147091 635 2 102.635 100.715 141.483 1 0 0 
70536 305 2 103.266 101.718 141.37 -1 0 0 
595491 60957 7 102.025 101.755 142.257 7 3 1 
70538 305 1 103.047 101.131 142.083 -1 0 0 
537036 2502 6 102.083 101.735 141.385 1 -6 2 
97204 419 5 102.183 101.543 141.492 0 0 0 
70542 305 2 103.355 101.629 142.332 -1 0 0 
147089 635 1 102.342 100.702 142.269 1 0 0 
70540 305 2 102.419 101.672 142.442 -1 0 0 
574530 39996 7 104.082 101.798 141.815 0 8 6 
70543 305 2 103.557 100.892 141.343 -1 0 0 
70735 305 4 104.685 101.487 141.873 -1 0 0 
398135 1717 2 104.933 101.198 142.344 0 0 0 
644918 110384 7 104.828 101.038 141.012 7 -3 -5 
324103 1397 4 104.409 101.579 141.001 1 0 -1 
324071 1397 2 104.143 100.916 141.094 1 0 -1 
613570 79036 7 103.654 101.983 141.289 3 -13 -2 
147290 635 5 104.102 100.586 141.964 1 0 0 
70539 305 2 103.884 101.32 141.708 -1 0 0 
573227 38693 6 104.141 100.601 141.954 4 -7 -4 
397165 1712 4 97.9958 103.408 141.996 1 1 -1 
593362 58828 7 97.6424 103.128 142.039 -5 0 1 
396972 1712 2 97.6008 102.772 141.43 1 1 -1 
487646 2102 5 97.853 102.362 141.811 0 0 0 
396965 1712 1 98.3201 102.912 141.382 1 1 -1 
396962 1712 1 98.5794 103.038 141.924 1 1 -1 
558759 24225 6 97.7366 102.411 141.806 1 2 2 
397166 1712 5 98.4253 102.469 142.35 1 1 -1 
557052 22518 6 98.3922 102.482 142.319 -3 -1 0 
453770 1956 5 99.491 102.162 141.195 0 0 0 
540039 5505 6 99.5888 102.047 141.195 6 4 -5 
566349 31815 6 99.4802 103.192 141.351 9 2 -5 
557283 22749 6 100.168 102.899 142.199 -3 0 3 
86534 373 5 100.271 102.966 142.171 1 1 0 
642583 108049 7 99.414 102.219 141.849 4 0 -5 
453774 1956 5 99.5348 103.149 141.431 0 0 0 
396967 1712 2 99.0614 102.379 141.699 1 1 -1 
647653 113119 7 100.037 102.518 141.515 9 -3 -6 
396964 1712 2 99.3237 102.741 142.141 1 1 -1 
560824 26290 6 99.8873 102.172 142.402 3 0 -2 
397158 1712 5 99.6842 102.163 142.458 1 1 -1 
629767 95233 7 100.512 102.325 141.639 -5 13 9 
558215 23681 6 101.427 102.446 141.206 2 5 3 
70732 305 5 101.507 102.453 141.243 -1 0 0 
86500 373 2 101.512 103.043 141.658 1 1 0 
601931 67397 7 100.709 102.04 141.072 -4 3 11 
587229 52695 7 101.332 102.494 142.047 5 -8 11 
564668 30134 6 100.725 103.473 142.128 -1 -5 -3 
623844 89310 7 100.656 102.797 141.464 -1 3 -11 
70729 305 4 101.452 103.296 142.126 -1 0 0 
86533 373 4 101.069 102.622 142.378 1 1 0 
70731 305 4 102.054 102.34 141.874 -1 0 0 
86502 373 1 102.178 103.169 141.115 1 1 0 
537654 3120 6 103.466 102.639 142.226 -1 0 -2 
386978 1669 2 103.488 103.244 141.169 1 1 -1 
70734 305 5 103.092 102.693 141.102 -1 0 0 
70535 305 1 102.799 102.053 141.857 -1 0 0 
70529 305 1 102.026 103.473 141.567 -1 0 0 
70532 305 1 102.414 102.902 141.656 -1 0 0 
70533 305 2 102.607 102.725 142.377 -1 0 0 
70537 305 2 103.173 102.411 141.604 -1 0 0 
386982 1669 2 102.888 103.13 142.17 1 1 -1 
97203 419 4 102.247 102.249 141.03 0 0 0 
546745 12211 6 103.062 102.751 141.06 7 0 -6 
78885 341 2 104.98 102.285 141.056 0 1 0 
78889 341 2 104.66 103.401 141.708 0 1 0 
387179 1669 4 104.197 102.54 142.355 1 1 -1 
554800 20266 6 104.686 102.425 141.91 0 -2 -1 
612286 77752 7 104.441 103.118 141.08 3 2 -4 
70736 305 5 104.343 102.094 141.958 -1 0 0 
386979 1669 2 103.776 103.263 141.716 1 1 -1 
620923 86389 7 104.115 102.439 141.573 3 -3 8 
386981 1669 2 103.883 103.315 141.936 1 1 -1 
387180 1669 5 103.506 102.639 142.315 1 1 -1 
387177 1669 4 104.21 102.835 141.28 1 1 -1 
615066 80532 7 104.687 103.39 142.485 15 7 -1 
314795 1357 4 97.6164 103.977 142.101 0 -1 0 
314599 1357 1 97.5043 104.854 141.197 0 -1 0 
396970 1712 2 98.1563 103.739 141.41 1 1 -1 
314597 1357 2 97.5534 104.523 142.2 0 -1 0 
642229 107695 7 98.925 103.622 141.476 0 -19 -16 
540316 5782 6 98.5369 104.518 141.989 4 -1 -2 
394121 1699 2 98.4485 104.834 141.492 0 0 0 
397159 1712 4 98.7659 103.85 141.719 1 1 -1 
236384 1019 5 98.4482 104.629 142.069 1 0 0 
396963 1712 2 98.3278 103.674 142.19 1 1 -1 
549121 14587 6 99.6373 104.659 142.263 -1 -2 -2 
23891 103 4 100.125 104.874 142.088 0 0 0 
539493 4959 6 100.485 103.566 141.564 0 8 -1 
622455 87921 7 99.9102 104.908 141.179 -4 1 3 
591700 57166 7 99.4025 104.055 141.048 4 1 -7 
601621 67087 7 99.4509 104.497 141.459 -8 13 2 
397160 1712 5 99.3314 104.458 142.202 1 1 -1 
23892 103 5 100.123 104.244 141.798 0 0 0 
548165 13631 6 99.0156 103.933 142.385 5 9 -1 
396961 1712 2 99.507 103.613 142.027 1 1 -1 
562246 27712 6 100.128 104.164 141.775 -1 1 -4 
86535 373 4 101.408 103.787 141.521 1 1 0 
522902 2254 5 101.234 104.488 141.858 1 1 0 
550431 15897 6 101.457 104.47 141.697 -1 0 3 
70730 305 5 100.713 103.571 141.747 -1 0 0 
644301 109767 7 100.521 104.113 141.15 -9 4 -3 
70530 305 2 101.822 103.856 142.153 -1 0 0 
23857 103 2 100.736 104.607 142.373 0 0 0 
23859 103 1 100.603 104.97 141.367 0 0 0 
522897 2254 4 102.704 104.355 142.323 1 1 0 
613381 78847 7 102.212 104.494 141.909 -8 -3 -8 
616319 81785 7 102.465 104.552 141.827 -6 0 2 
583641 49107 7 103.39 104.381 141.61 -1 -5 -6 
578622 44088 7 102.631 104.216 141.097 -10 -11 -4 
70531 305 2 102.386 103.783 141.667 -1 0 0 
70534 305 2 102.824 103.669 141.356 -1 0 0 
386980 1669 1 103.27 103.857 142.28 1 1 -1 
522698 2254 2 102.509 104.051 142.499 1 1 0 
79088 341 5 104.255 103.774 142.465 0 1 0 
589220 54686 7 104.55 104.319 141.065 0 4 6 
78892 341 2 104.844 103.84 141.354 0 1 0 
612106 77572 7 104.318 104.182 141.314 -10 -10 -5 
50804 219 5 104.841 104.945 142.495 1 0 -1 
618416 83882 7 104.078 104.932 142.062 5 -2 4 
78891 341 2 104.747 104.56 142.21 0 1 0 
386977 1669 1 103.814 103.913 141.643 1 1 -1 
78890 341 1 104.704 104.107 141.991 0 1 0 
250337 1080 2 104.824 104.982 141.399 0 0 0 
595838 61304 7 103.732 104.466 142.36 5 -1 6 
627982 93448 7 97.5247 98.9071 143.148 -3 10 3 
553688 19154 6 97.7758 97.6851 143.431 1 -1 -2 
506417 2183 2 97.8229 98.1019 142.986 1 1 -1 
602150 67616 7 98.6891 98.7989 143.82 4 14 6 
506452 2183 5 98.2796 98.8286 142.579 1 1 -1 
625311 90777 7 98.1394 98.3326 143.519 5 4 -2 
506448 2183 5 97.5994 97.7498 143.349 1 1 -1 
506451 2183 4 98.6857 98.2662 143.178 1 1 -1 
580024 45490 7 98.5242 97.894 143.741 8 -2 -5 
506416 2183 1 98.3041 97.7756 142.511 1 1 -1 
247984 1069 5 100.144 98.4242 143.649 0 0 0 
506419 2183 1 99.0327 97.6285 143.131 1 1 -1 
645169 110635 7 99.2654 98.208 143.825 3 -8 4 
58890 254 2 99.5738 98.7724 142.801 0 1 0 
58889 254 2 99.1153 98.936 142.784 0 1 0 
58896 254 2 100.394 97.8452 143.51 0 1 0 
58923 254 4 99.511 98.7243 143.184 0 1 0 
506453 2183 4 99.9313 97.6888 142.986 1 1 -1 
545624 11090 6 100.193 98.3721 143.566 -2 0 2 
575991 41457 7 99.1915 98.5481 143.902 1 -13 -4 
506423 2183 2 99.7414 98.0181 143.02 1 1 -1 
623150 88616 7 100.113 97.6472 143.775 5 10 7 
506420 2183 2 99.0143 98.094 142.538 1 1 -1 
147293 635 4 101.818 98.7111 142.633 1 0 0 
58927 254 4 101.248 97.776 143.257 0 1 0 
58928 254 5 101.92 97.8811 142.756 0 1 0 
247793 1069 2 101.868 98.3401 143.691 0 0 0 
247981 1069 4 101.159 98.8023 143.148 0 0 0 
58895 254 2 101.268 98.151 142.74 0 1 0 
58894 254 1 100.669 98.2936 142.896 0 1 0 
578330 43796 7 101.416 98.0111 143.423 1 5 -13 
247788 1069 2 101.409 98.5946 143.801 0 0 0 
588391 53857 7 101.452 98.8128 143.134 0 -3 -7 
546588 12054 6 101.906 97.8913 142.848 4 -3 -3 
506455 2183 4 100.562 97.5913 142.686 1 1 -1 
398315 1717 4 102.851 97.9715 143.036 0 0 0 
70739 305 4 103.211 98.9404 142.527 -1 0 0 
582676 48142 7 102.517 97.7478 143.277 9 -5 -13 
247986 1069 5 102.348 98.5154 143.386 0 0 0 
557566 23032 6 102.638 98.8254 143.199 5 -6 2 
247794 1069 2 103.105 98.1049 143.733 0 0 0 
574581 40047 7 102.998 98.8242 143.006 -6 -8 1 
119442 515 2 102.925 97.597 142.826 0 0 0 
70740 305 5 103.601 98.6466 143.207 -1 0 0 
609418 74884 7 104.117 98.0399 142.725 -2 -4 3 
544667 10133 6 103.721 98.6627 143.6 -5 0 1 
619502 84968 7 103.574 97.7513 142.974 1 3 -11 
549360 14826 6 104.474 98.5441 143.181 0 -3 5 
398158 1717 3 104.627 98.921 143.935 0 0 0 
119466 515 5 104.465 98.5527 143.251 0 0 0 
398162 1717 3 104.097 97.8781 143.654 0 0 0 
119433 515 2 104.997 98.0242 142.856 0 0 0 
398156 1717 3 104.741 97.7149 143.517 0 0 0 
631806 97272 7 98.1858 100.246 143.317 2 5 4 
610779 76245 7 98.0229 99.0427 143.822 6 10 -9 
628559 94025 7 98.8292 100.278 143.106 -2 -11 1 
591361 56827 7 97.744 100.429 143.274 0 -7 -3 
58924 254 5 98.7905 99.6734 142.884 0 1 0 
71232 308 2 98.5781 99.6769 143.808 0 1 -1 
621082 86548 7 98.2977 99.7108 143.395 -2 -13 0 
612900 78366 7 98.0587 100.371 142.781 -4 -10 -3 
621769 87235 7 97.5581 99.506 142.566 2 1 4 
629310 94776 7 98.3309 99.0905 143.181 -3 -2 10 
560468 25934 6 97.5482 99.6014 143.061 4 3 -4 
395329 1705 1 100.373 99.4247 143.458 1 0 -1 
395332 1705 1 100.432 100.082 143.569 1 0 -1 
594514 59980 7 99.2121 99.3741 143.323 7 -11 2 
58893 254 2 100.341 99.0013 143.103 0 1 0 
645085 110551 7 99.4272 100.214 143.938 0 8 -5 
598883 64349 7 99.9052 100.183 143.29 3 -13 -9 
633996 99462 7 99.4319 99.3578 143.942 -2 -4 1 
578635 44101 7 99.6815 99.3803 143.497 3 5 -8 
487447 2102 2 99.137 100.375 142.792 0 0 0 
598811 64277 7 99.9265 99.3044 143.938 9 13 0 
395530 1705 5 99.5763 99.5466 142.56 1 0 -1 
395529 1705 4 100.173 99.7216 142.58 1 0 -1 
572773 38239 6 99.564 99.7659 142.573 0 -2 2 
247982 1069 5 101.656 99.4246 143.632 0 0 0 
247784 1069 2 100.832 99.0796 143.866 0 0 0 
395330 1705 2 100.712 99.4578 142.77 1 0 -1 
644900 110366 7 101.453 99.3814 142.622 -7 -1 -3 
568418 33884 6 101.483 99.3197 143.619 -5 7 6 
395334 1705 2 100.84 99.956 143.338 1 0 -1 
147296 635 5 100.777 100.296 142.641 1 0 0 
522909 2254 4 101.543 100.463 143.514 1 1 0 
147295 635 4 101.335 99.7724 142.791 1 0 0 
545522 10988 6 100.66 100.466 142.703 1 -1 0 
626362 91828 7 101.919 100.04 143.984 5 -7 -13 
70545 305 2 103.35 99.6683 143.04 -1 0 0 
147294 635 5 102.424 99.1065 142.854 1 0 0 
611506 76972 7 102.068 99.9097 143.075 3 6 0 
616767 82233 7 103.123 99.5843 142.574 -7 2 -8 
522718 2254 1 102.451 99.9182 143.725 1 1 0 
522721 2254 3 102.768 99.3821 143.596 1 1 0 
522722 2254 3 102.907 99.965 143.484 1 1 0 
620533 85999 7 102.515 99.839 142.621 3 1 0 
583568 49034 7 103.105 99.2329 143.776 -2 -1 -10 
398324 1717 5 103.839 100.226 143.279 0 0 0 
544092 9558 6 103.783 100.182 143.158 2 3 1 
70741 305 4 104.446 99.1678 142.532 -1 0 0 
70547 305 1 104.3 99.8158 142.973 -1 0 0 
70550 305 1 104.401 99.4705 143.499 -1 0 0 
70548 305 2 103.957 99.1721 142.923 -1 0 0 
70551 305 2 103.879 99.9995 143.959 -1 0 0 
70552 305 2 103.947 99.3239 143.942 -1 0 0 
398323 1717 4 104.372 100.272 142.561 0 0 0 
70553 305 3 104.661 99.3863 143.951 -1 0 0 
225334 972 3 104.738 100.24 143.76 0 1 0 
612088 77554 7 97.5811 101.155 142.875 -20 -1 4 
611240 76706 7 97.9053 101.722 143.284 7 -12 -9 
581771 47237 7 97.8275 100.979 143.568 -5 -4 6 
487638 2102 5 98.5931 101.101 143.499 0 0 0 
557357 22823 6 98.4761 101.196 143.53 1 -1 2 
644062 109528 7 98.6846 100.525 143.881 -6 2 4 
634630 100096 7 98.5434 100.935 142.84 -4 -22 -2 
553989 19455 6 98.6146 101.63 142.595 4 2 -4 
538951 4417 6 97.9564 101.888 142.512 4 3 -4 
487641 2102 4 99.8711 100.623 142.694 0 0 0 
487442 2102 1 99.0451 101.745 143.231 0 0 0 
487446 2102 2 99.6141 100.821 143.462 0 0 0 
71431 308 4 99.0571 101.192 143.814 0 1 -1 
553633 19099 6 100.073 101.723 143.225 2 2 -3 
487445 2102 1 99.2983 101.133 142.615 0 0 0 
395336 1705 2 99.5282 101.231 143.555 1 0 -1 
395534 1705 5 100.034 101.865 143.48 1 0 -1 
487443 2102 2 99.5143 101.947 142.784 0 0 0 
635246 100712 7 99.8961 101.33 142.525 3 -3 -2 
522908 2254 5 101.503 100.694 142.747 1 1 0 
643560 109026 7 101.41 101.924 142.797 -2 -6 -2 
558942 24408 6 100.886 101.638 143.93 -1 7 2 
522910 2254 5 101.666 101.317 143.404 1 1 0 
539183 4649 6 101.663 101.319 143.392 -5 -5 6 
395346 1705 2 100.788 101.999 143.406 1 0 -1 
635937 101403 7 100.528 101.272 142.698 -3 -3 -2 
581117 46583 7 101.355 100.886 143.642 -4 7 -2 
541852 7318 6 100.594 101.116 143.26 5 -1 -4 
487642 2102 5 100.621 101.134 143.266 0 0 0 
596733 62199 7 100.781 101.708 142.718 -6 -1 6 
561474 26940 6 101.387 100.937 142.648 1 3 -5 
522712 2254 1 102.407 101.444 143.454 1 1 0 
522714 2254 2 103.324 101.303 143.059 1 1 0 
147090 635 2 103.111 100.798 142.854 1 0 0 
